 VARIABLES = "X", "Y", "Z"
 ZONE F=FEPOINT, ET=BRICK, N=         610 E=         412
  -1.5412778077960678       -3.1407363202834468        6.5521469702765484E-002
  -1.0154002439045449       -3.1643924581539653        7.2105147777079603E-002
 -0.26266525414772102       -3.1974034944578014        5.1209462213120560E-002
  0.52899868134168548       -3.1776199499937743        2.1979306077482833E-002
   1.2632944265925841       -3.1075962430021375        6.5971960265054320E-003
   1.7685972376305101       -3.0571282798933788        2.2549183408169674E-003
  -2.4374631569991463       -2.4374635120736521        9.5001147267131575E-002
  -1.8345616007170467       -2.6249395924463519       0.14144061426768545     
  -1.0069274728856585       -2.4952663138979911       0.24566103269950626     
 -0.25303648278646423       -2.4733824188568092       0.19329158328455687     
  0.50473325472072661       -2.4614493330198104        8.6419349029691672E-002
   1.2453006696909845       -2.4567809646814469        2.4569818700745035E-002
   2.0407976215216834       -2.5436049180947626        3.8750504348075104E-003
   2.6076932756249640       -2.3364384881794518        2.0342187479694537E-003
  -3.1407365868278858       -1.5412778636373226        6.5521430328462887E-002
  -2.6249400594422840       -1.8345617190784411       0.14144049292110747     
  -1.7862104212381007       -1.7862093748269321       0.40485290710626826     
  -1.0180424284636400       -1.7666218460261647       0.56321028289134745     
 -0.25424676837110910       -1.7458687327249336       0.44577187040686872     
  0.50106632475379864       -1.7388505467270967       0.21615876172694387     
   1.2538175761405235       -1.7423213614009252        7.8725042910694792E-002
   1.9953987100986359       -1.7380088958343576        2.7963998715483201E-002
   2.7786633989496550       -1.7503323623115343        7.4723806522185741E-003
   3.2512582491644619       -1.4533618376254775        5.9492941490427191E-003
  -3.1643947711602296       -1.0154003519267196        7.2104786517786429E-002
  -2.4952720699992152       -1.0069275972391307       0.24565891287536010     
  -1.7666321804470306       -1.0180411981897817       0.56320575568135511     
  -1.0097720994363197       -1.0097579367236906       0.77634699822886077     
 -0.25345261989577733       -1.0022817219838367       0.65971184123849702     
  0.50068454104599691      -0.99838011451569975       0.42303113089494332     
   1.2493363109401019      -0.99616934298407334       0.25806014196417565     
   1.9847406810727051      -0.98916982544328813       0.13645641293887983     
   2.6716836929814085      -0.95492480882796560        5.5762382469292361E-002
   3.2760785313518430      -0.92657228954754234        1.7666232608377293E-002
  -3.1974168875648470      -0.26266573381539515        5.1207970443104996E-002
  -2.4734183272942252      -0.25303762647829242       0.19328140042315681     
  -1.7459373235547091      -0.25424739952564751       0.44574709412373065     
  -1.0023815263378808      -0.25343972759389310       0.65968932718331708     
 -0.25102117100700305      -0.25091139033953153       0.74161472388901395     
  0.50133086271657956      -0.24841329309371357       0.79087124921743146     
   1.2496169151978951      -0.24489834863695017       0.71484172279158487     
   1.9809177314641271      -0.23799748347150010       0.43746628119199571     
   2.6720289339637691      -0.22432572500839471       0.17584918507793226     
   3.3202886268266982      -0.19194988792709378        4.9995690286028807E-002
  -3.1776744916980473       0.52899674153314324        2.1976736270943251E-002
  -2.4616140327105556       0.50472751633341306        8.6398164211052147E-002
  -1.7391944894145630       0.50105570488240636       0.21608520969393674     
 -0.99890833166978943       0.50068040935921632       0.42284273316814747     
 -0.24901882789482582       0.50140968068543623       0.79049748741110415     
  0.50360803448847613       0.50411865003998435        1.2508428361341788     
   1.2550868904894983       0.50928928028423059        1.3061659867077506     
   2.0028619590520638       0.51694393850637099       0.80990394391754139     
   2.7119227142885114       0.50518885337025021       0.30682089318941547     
   3.3441257751758613       0.50489718056074184        8.5065452704723654E-002
  -3.1077414480885897        1.2632892524809880        6.5951600683323260E-003
  -2.4573245756775051        1.2452813822078299        2.4547268046857515E-002
  -1.7436328338739109        1.2537720036970910        7.8564882269097872E-002
 -0.99834134933235630        1.2492693030963229       0.25721442399878858     
 -0.24745593233004395        1.2495946049177298       0.71280254460177828     
  0.50712789516257140        1.2553558238328044        1.3047603144398174     
   1.2612366446403580        1.2625136144931464        1.4050791757653696     
   2.0167967512062970        1.2762986958149607       0.86160892981703607     
   2.8748658407272187        1.3205620735256884       0.24576919536339600     
   3.3722453725679649       0.99423836332133964        8.9973062817128024E-002
  -3.0573217681878582        1.7685903383598904        2.2539448396327387E-003
  -2.5447223701492674        2.0407578179975623        3.8650589197201744E-003
  -1.7417948628916438        1.9952643695935932        2.7729249245765124E-002
 -0.99625004289608421        1.9844940126811932       0.13470432956945780     
 -0.24667602513121928        1.9806445626374978       0.43300891260569141     
  0.50986923720422284        2.0027775506778345       0.80722653564695346     
   1.2725257420150711        2.0172320872476432       0.86212365127810520     
   2.0018291188999138        2.0030952789765943       0.54919611485528064     
   2.6507329226850542        2.0754586120524237       0.21539949781564485     
  -2.3381049278266599        2.6076338532398879        2.0247056878810719E-003
  -1.7576254437044723        2.7784035291621545        7.3338831538458469E-003
 -0.97396490723046458        2.6710070986649126        5.3810338549067492E-002
 -0.24910736687338195        2.6711594554715519       0.17082308333998406     
  0.48615202419836057        2.7113017653154667       0.30422218971327869     
   1.3132878693308490        2.8747565356485927       0.24638734146895264     
   2.0740341343124888        2.6509865309418017       0.21563923563941820     
   2.5233966837583166        2.5237067808455707       0.14723517538308442     
  -1.4647215609630253        3.2508530740919612        5.7925510575543744E-003
 -0.96778034661327605        3.2746094504976306        1.6365280614842364E-002
 -0.25887352621686255        3.3179055941966289        4.6321058723577689E-002
  0.46369058478715197        3.3426690171998845        8.3563302907095710E-002
  0.98288118185516238        3.3718586631125373        9.0044104912292741E-002
  -2.3285924036888170       -3.2523310743961380        2.4557691294383194E-002
  -1.8335441519349613       -3.5550127767569419        2.0260473664804983E-002
  -1.1675853264528164       -3.8257998517240903        1.3647418591423599E-002
 -0.30678624909143515       -3.9882179225022809        6.7899882973420159E-003
  0.60822889882053965       -3.9534867657094228        2.6321822992048873E-003
   1.4286652761426821       -3.7361632095967319        9.4855266361878402E-004
   2.0490569130437470       -3.4353115967998638        4.1649523560920718E-004
   2.5189079936378249       -3.1072660844522901        2.6948121802108113E-004
   2.9669844321257965       -2.6827231276304242        3.1563262235589397E-004
   3.3475599716134004       -2.1894844681914716        6.1843957674713229E-004
   3.6099615989658647       -1.7228398805436962        1.2358437894386253E-003
   3.8485258153491801       -1.0903435461316440        2.9253404214042472E-003
   4.0000000000000000       -9.7971743931788257E-016   1.0108615745683426E-002
   3.9613791504720064       0.55450448709247147        1.6931296925539657E-002
   3.8008966054444047        1.2462684280367542        2.8800883879335677E-002
   3.6016174775355054        1.7402159479532366        3.8670045050184697E-002
   3.2349442658029699        2.3526868888886350        4.9444881795776781E-002
   2.8284270241527447        2.8284272253396323        5.2988808919695193E-002
   2.3526868888886359        3.2349442658029690        4.9444881795776843E-002
   1.7402159479532362        3.6016174775355059        3.8670045050184648E-002
   1.2462684280367511        3.8008966054444056        2.8800883879335638E-002
  0.55450448709247224        3.9613791504720064        1.6931296925539657E-002
 -0.28498846185818255        3.9898347806153209        7.5260424937469341E-003
  -1.0903435461316446        3.8485258153491801        2.9253404214042420E-003
  -1.7228407450622267        3.6099611863776917        1.2358422469532643E-003
  -2.1894844681914720        3.3475599716133999        6.1843957674713229E-004
  -2.6827231276304246        2.9669844321257961        3.1563262235589397E-004
  -3.1072660844522919        2.5189079936378231        2.6948121802108086E-004
  -3.4353115967998633        2.0490569130437484        4.1649523560920583E-004
  -3.7361632095967336        1.4286652761426784        9.4855266361878879E-004
  -3.9534867657094233       0.60822889882053732        2.6321822992048920E-003
  -3.9882179225022805      -0.30678624909143570        6.7899882973420219E-003
  -3.8257998517240894       -1.1675853264528187        1.3647418591423634E-002
  -3.5550127767569402       -1.8335441519349649        2.0260473664805028E-002
  -3.2523310743961376       -2.3285924036888175        2.4557691294383215E-002
  -2.8284263986661937       -2.8284278508259999        2.6494889482023394E-002
  -1.5412778077960678       -3.1407363202834468       0.79914110227707413     
  -1.0154002439045449       -3.1643924581539653       0.80407886083280966     
 -0.26266525414772102       -3.1974034944578014       0.78840709665984043     
  0.52899868134168548       -3.1776199499937743       0.76648447955811216     
   1.2632944265925841       -3.1075962430021375       0.75494789701987908     
   1.7685972376305101       -3.0571282798933788       0.75169118875561269     
  -2.4374631569991463       -2.4374635120736521       0.82125086045034867     
  -1.8345616007170467       -2.6249395924463519       0.85608046070076405     
  -1.0069274728856585       -2.4952663138979911       0.93424577452462976     
 -0.25303648278646423       -2.4733824188568092       0.89496868746341762     
  0.50473325472072661       -2.4614493330198104       0.81481451177226871     
   1.2453006696909845       -2.4567809646814469       0.76842736402555878     
   2.0407976215216834       -2.5436049180947626       0.75290628782610558     
   2.6076932756249640       -2.3364384881794518       0.75152566406097709     
  -3.1407365868278858       -1.5412778636373226       0.79914107274634716     
  -2.6249400594422840       -1.8345617190784411       0.85608036969083057     
  -1.7862104212381007       -1.7862093748269321        1.0536396803297012     
  -1.0180424284636400       -1.7666218460261647        1.1724077121685106     
 -0.25424676837110910       -1.7458687327249336        1.0843289028051515     
  0.50106632475379864       -1.7388505467270967       0.91211907129520786     
   1.2538175761405235       -1.7423213614009252       0.80904378218302109     
   1.9953987100986359       -1.7380088958343576       0.77097299903661243     
   2.7786633989496550       -1.7503323623115343       0.75560428548916392     
   3.2512582491644619       -1.4533618376254775       0.75446197061178200     
  -3.1643947711602296       -1.0154003519267196       0.80407858988833980     
  -2.4952720699992152       -1.0069275972391307       0.93424418465652004     
  -1.7666321804470306       -1.0180411981897817        1.1724043167610163     
  -1.0097720994363197       -1.0097579367236906        1.3322602486716457     
 -0.25345261989577733       -1.0022817219838367        1.2447838809288727     
  0.50068454104599691      -0.99838011451569975        1.0672733481712076     
   1.2493363109401019      -0.99616934298407334       0.94354510647313172     
   1.9847406810727051      -0.98916982544328813       0.85234230970415992     
   2.6716836929814085      -0.95492480882796560       0.79182178685196924     
   3.2760785313518430      -0.92657228954754234       0.76324967445628300     
  -3.1974168875648470      -0.26266573381539515       0.78840597783232880     
  -2.4734183272942252      -0.25303762647829242       0.89496105031736761     
  -1.7459373235547091      -0.25424739952564751        1.0843103205927980     
  -1.0023815263378808      -0.25343972759389310        1.2447669953874878     
 -0.25102117100700305      -0.25091139033953153        1.3062110429167606     
  0.50133086271657956      -0.24841329309371357        1.3431534369130735     
   1.2496169151978951      -0.24489834863695017        1.2861312920936887     
   1.9809177314641271      -0.23799748347150010        1.0780997108939969     
   2.6720289339637691      -0.22432572500839471       0.88188688880844923     
   3.3202886268266982      -0.19194988792709378       0.78749676771452159     
  -3.1776744916980473       0.52899674153314324       0.76648255220320749     
  -2.4616140327105556       0.50472751633341306       0.81479862315828910     
  -1.7391944894145630       0.50105570488240636       0.91206390727045261     
 -0.99890833166978943       0.50068040935921632        1.0671320498761105     
 -0.24901882789482582       0.50140968068543623        1.3428731155583282     
  0.50360803448847613       0.50411865003998435        1.6881321271006340     
   1.2550868904894983       0.50928928028423059        1.7296244900308131     
   2.0028619590520638       0.51694393850637099        1.3574279579381561     
   2.7119227142885114       0.50518885337025021       0.98011566989206167     
   3.3441257751758613       0.50489718056074184       0.81379908952854274     
  -3.1077414480885897        1.2632892524809880       0.75494637005124920     
  -2.4573245756775051        1.2452813822078299       0.76841045103514316     
  -1.7436328338739109        1.2537720036970910       0.80892366170182339     
 -0.99834134933235630        1.2492693030963229       0.94291081799909149     
 -0.24745593233004395        1.2495946049177298        1.2846019084513336     
  0.50712789516257140        1.2553558238328044        1.7285702358298631     
   1.2612366446403580        1.2625136144931464        1.8038093818240273     
   2.0167967512062970        1.2762986958149607        1.3962066973627771     
   2.8748658407272187        1.3205620735256884       0.93432689652254697     
   3.3722453725679649       0.99423836332133964       0.81747979711284602     
  -3.0573217681878582        1.7685903383598904       0.75169045862972450     
  -2.5447223701492674        2.0407578179975623       0.75289879418979011     
  -1.7417948628916438        1.9952643695935932       0.77079693693432383     
 -0.99625004289608421        1.9844940126811932       0.85102824717709336     
 -0.24667602513121928        1.9806445626374978        1.0747566844542686     
  0.50986923720422284        2.0027775506778345        1.3554199017352151     
   1.2725257420150711        2.0172320872476432        1.3965927384585788     
   2.0018291188999138        2.0030952789765943        1.1618970861414604     
   2.6507329226850542        2.0754586120524237       0.91154962336173362     
  -2.3381049278266599        2.6076338532398879       0.75151852926591078     
  -1.7576254437044723        2.7784035291621545       0.75550041236538434     
 -0.97396490723046458        2.6710070986649126       0.79035775391180063     
 -0.24910736687338195        2.6711594554715519       0.87811731250498803     
  0.48615202419836057        2.7113017653154667       0.97816664228495909     
   1.3132878693308490        2.8747565356485927       0.93479050610171455     
   2.0740341343124888        2.6509865309418017       0.91172942672956370     
   2.5233966837583166        2.5237067808455707       0.86042638153731332     
  -1.4647215609630253        3.2508530740919612       0.75434441329316582     
 -0.96778034661327605        3.2746094504976306       0.76227396046113172     
 -0.25887352621686255        3.3179055941966289       0.78474079404268327     
  0.46369058478715197        3.3426690171998845       0.81267247718032176     
  0.98288118185516238        3.3718586631125373       0.81753307868421954     
  -2.3285924036888170       -3.2523310743961380       0.76841826847078742     
  -1.8335441519349613       -3.5550127767569419       0.76519535524860371     
  -1.1675853264528164       -3.8257998517240903       0.76023556394356773     
 -0.30678624909143515       -3.9882179225022809       0.75509249122300648     
  0.60822889882053965       -3.9534867657094228       0.75197413672440372     
   1.4286652761426821       -3.7361632095967319       0.75071141449771406     
   2.0490569130437470       -3.4353115967998638       0.75031237142670693     
   2.5189079936378249       -3.1072660844522901       0.75020211091351585     
   2.9669844321257965       -2.6827231276304242       0.75023672446676692     
   3.3475599716134004       -2.1894844681914716       0.75046382968256031     
   3.6099615989658647       -1.7228398805436962       0.75092688284207898     
   3.8485258153491801       -1.0903435461316440       0.75219400531605318     
   4.0000000000000000       -9.7971743931788257E-016  0.75758146180926256     
   3.9613791504720064       0.55450448709247147       0.76269847269415469     
   3.8008966054444047        1.2462684280367542       0.77160066290950180     
   3.6016174775355054        1.7402159479532366       0.77900253378763851     
   3.2349442658029699        2.3526868888886350       0.78708366134683261     
   2.8284270241527447        2.8284272253396323       0.78974160668977134     
   2.3526868888886359        3.2349442658029690       0.78708366134683261     
   1.7402159479532362        3.6016174775355059       0.77900253378763851     
   1.2462684280367511        3.8008966054444056       0.77160066290950169     
  0.55450448709247224        3.9613791504720064       0.76269847269415469     
 -0.28498846185818255        3.9898347806153209       0.75564453187031022     
  -1.0903435461316446        3.8485258153491801       0.75219400531605318     
  -1.7228407450622267        3.6099611863776917       0.75092688168521493     
  -2.1894844681914720        3.3475599716133999       0.75046382968256031     
  -2.6827231276304246        2.9669844321257961       0.75023672446676692     
  -3.1072660844522919        2.5189079936378231       0.75020211091351585     
  -3.4353115967998633        2.0490569130437484       0.75031237142670693     
  -3.7361632095967336        1.4286652761426784       0.75071141449771406     
  -3.9534867657094233       0.60822889882053732       0.75197413672440372     
  -3.9882179225022805      -0.30678624909143570       0.75509249122300648     
  -3.8257998517240894       -1.1675853264528187       0.76023556394356773     
  -3.5550127767569402       -1.8335441519349649       0.76519535524860371     
  -3.2523310743961376       -2.3285924036888175       0.76841826847078742     
  -2.8284263986661937       -2.8284278508259999       0.76987116711151760     
  -1.5412778077960678       -3.1407363202834468        1.5327607348513828     
  -1.0154002439045449       -3.1643924581539653        1.5360525738885398     
 -0.26266525414772102       -3.1974034944578014        1.5256047311065604     
  0.52899868134168548       -3.1776199499937743        1.5109896530387414     
   1.2632944265925841       -3.1075962430021375        1.5032985980132527     
   1.7685972376305101       -3.0571282798933788        1.5011274591704085     
  -2.4374631569991463       -2.4374635120736521        1.5475005736335659     
  -1.8345616007170467       -2.6249395924463519        1.5707203071338427     
  -1.0069274728856585       -2.4952663138979911        1.6228305163497532     
 -0.25303648278646423       -2.4733824188568092        1.5966457916422785     
  0.50473325472072661       -2.4614493330198104        1.5432096745148458     
   1.2453006696909845       -2.4567809646814469        1.5122849093503725     
   2.0407976215216834       -2.5436049180947626        1.5019375252174036     
   2.6076932756249640       -2.3364384881794518        1.5010171093739848     
  -3.1407365868278858       -1.5412778636373226        1.5327607151642315     
  -2.6249400594422840       -1.8345617190784411        1.5707202464605536     
  -1.7862104212381007       -1.7862093748269321        1.7024264535531342     
  -1.0180424284636400       -1.7666218460261647        1.7816051414456737     
 -0.25424676837110910       -1.7458687327249336        1.7228859352034345     
  0.50106632475379864       -1.7388505467270967        1.6080793808634719     
   1.2538175761405235       -1.7423213614009252        1.5393625214553475     
   1.9953987100986359       -1.7380088958343576        1.5139819993577417     
   2.7786633989496550       -1.7503323623115343        1.5037361903261093     
   3.2512582491644619       -1.4533618376254775        1.5029746470745213     
  -3.1643947711602296       -1.0154003519267196        1.5360523932588932     
  -2.4952720699992152       -1.0069275972391307        1.6228294564376800     
  -1.7666321804470306       -1.0180411981897817        1.7816028778406776     
  -1.0097720994363197       -1.0097579367236906        1.8881734991144303     
 -0.25345261989577733       -1.0022817219838367        1.8298559206192486     
  0.50068454104599691      -0.99838011451569975        1.7115155654474716     
   1.2493363109401019      -0.99616934298407334        1.6290300709820877     
   1.9847406810727051      -0.98916982544328813        1.5682282064694399     
   2.6716836929814085      -0.95492480882796560        1.5278811912346462     
   3.2760785313518430      -0.92657228954754234        1.5088331163041886     
  -3.1974168875648470      -0.26266573381539515        1.5256039852215526     
  -2.4734183272942252      -0.25303762647829242        1.5966407002115783     
  -1.7459373235547091      -0.25424739952564751        1.7228735470618652     
  -1.0023815263378808      -0.25343972759389310        1.8298446635916585     
 -0.25102117100700305      -0.25091139033953153        1.8708073619445069     
  0.50133086271657956      -0.24841329309371357        1.8954356246087158     
   1.2496169151978951      -0.24489834863695017        1.8574208613957923     
   1.9809177314641271      -0.23799748347150010        1.7187331405959978     
   2.6720289339637691      -0.22432572500839471        1.5879245925389662     
   3.3202886268266982      -0.19194988792709378        1.5249978451430144     
  -3.1776744916980473       0.52899674153314324        1.5109883681354717     
  -2.4616140327105556       0.50472751633341306        1.5431990821055261     
  -1.7391944894145630       0.50105570488240636        1.6080426048469683     
 -0.99890833166978943       0.50068040935921632        1.7114213665840738     
 -0.24901882789482582       0.50140968068543623        1.8952487437055521     
  0.50360803448847613       0.50411865003998435        2.1254214180670896     
   1.2550868904894983       0.50928928028423059        2.1530829933538751     
   2.0028619590520638       0.51694393850637099        1.9049519719587706     
   2.7119227142885114       0.50518885337025021        1.6534104465947077     
   3.3441257751758613       0.50489718056074184        1.5425327263523618     
  -3.1077414480885897        1.2632892524809880        1.5032975800341661     
  -2.4573245756775051        1.2452813822078299        1.5122736340234288     
  -1.7436328338739109        1.2537720036970910        1.5392824411345489     
 -0.99834134933235630        1.2492693030963229        1.6286072119993942     
 -0.24745593233004395        1.2495946049177298        1.8564012723008891     
  0.50712789516257140        1.2553558238328044        2.1523801572199086     
   1.2612366446403580        1.2625136144931464        2.2025395878826846     
   2.0167967512062970        1.2762986958149607        1.9308044649085181     
   2.8748658407272187        1.3205620735256884        1.6228845976816979     
   3.3722453725679649       0.99423836332133964        1.5449865314085640     
  -3.0573217681878582        1.7685903383598904        1.5011269724198164     
  -2.5447223701492674        2.0407578179975623        1.5019325294598600     
  -1.7417948628916438        1.9952643695935932        1.5138646246228826     
 -0.99625004289608421        1.9844940126811932        1.5673521647847288     
 -0.24667602513121928        1.9806445626374978        1.7165044563028458     
  0.50986923720422284        2.0027775506778345        1.9036132678234767     
   1.2725257420150711        2.0172320872476432        1.9310618256390526     
   2.0018291188999138        2.0030952789765943        1.7745980574276403     
   2.6507329226850542        2.0754586120524237        1.6076997489078224     
  -2.3381049278266599        2.6076338532398879        1.5010123528439405     
  -1.7576254437044723        2.7784035291621545        1.5036669415769228     
 -0.97396490723046458        2.6710070986649126        1.5269051692745337     
 -0.24910736687338195        2.6711594554715519        1.5854115416699921     
  0.48615202419836057        2.7113017653154667        1.6521110948566393     
   1.3132878693308490        2.8747565356485927        1.6231936707344763     
   2.0740341343124888        2.6509865309418017        1.6078196178197091     
   2.5233966837583166        2.5237067808455707        1.5736175876915421     
  -1.4647215609630253        3.2508530740919612        1.5028962755287771     
 -0.96778034661327605        3.2746094504976306        1.5081826403074212     
 -0.25887352621686255        3.3179055941966289        1.5231605293617889     
  0.46369058478715197        3.3426690171998845        1.5417816514535478     
  0.98288118185516238        3.3718586631125373        1.5450220524561464     
  -2.3285924036888170       -3.2523310743961380        1.5122788456471916     
  -1.8335441519349613       -3.5550127767569419        1.5101302368324026     
  -1.1675853264528164       -3.8257998517240903        1.5068237092957117     
 -0.30678624909143515       -3.9882179225022809        1.5033949941486711     
  0.60822889882053965       -3.9534867657094228        1.5013160911496024     
   1.4286652761426821       -3.7361632095967319        1.5004742763318093     
   2.0490569130437470       -3.4353115967998638        1.5002082476178047     
   2.5189079936378249       -3.1072660844522901        1.5001347406090106     
   2.9669844321257965       -2.6827231276304242        1.5001578163111779     
   3.3475599716134004       -2.1894844681914716        1.5003092197883736     
   3.6099615989658647       -1.7228398805436962        1.5006179218947193     
   3.8485258153491801       -1.0903435461316440        1.5014626702107021     
   4.0000000000000000       -9.7971743931788257E-016   1.5050543078728418     
   3.9613791504720064       0.55450448709247147        1.5084656484627699     
   3.8008966054444047        1.2462684280367542        1.5144004419396679     
   3.6016174775355054        1.7402159479532366        1.5193350225250923     
   3.2349442658029699        2.3526868888886350        1.5247224408978883     
   2.8284270241527447        2.8284272253396323        1.5264944044598476     
   2.3526868888886359        3.2349442658029690        1.5247224408978883     
   1.7402159479532362        3.6016174775355059        1.5193350225250923     
   1.2462684280367511        3.8008966054444056        1.5144004419396677     
  0.55450448709247224        3.9613791504720064        1.5084656484627699     
 -0.28498846185818255        3.9898347806153209        1.5037630212468736     
  -1.0903435461316446        3.8485258153491801        1.5014626702107021     
  -1.7228407450622267        3.6099611863776917        1.5006179211234767     
  -2.1894844681914720        3.3475599716133999        1.5003092197883736     
  -2.6827231276304246        2.9669844321257961        1.5001578163111779     
  -3.1072660844522919        2.5189079936378231        1.5001347406090106     
  -3.4353115967998633        2.0490569130437484        1.5002082476178047     
  -3.7361632095967336        1.4286652761426784        1.5004742763318093     
  -3.9534867657094233       0.60822889882053732        1.5013160911496024     
  -3.9882179225022805      -0.30678624909143570        1.5033949941486711     
  -3.8257998517240894       -1.1675853264528187        1.5068237092957117     
  -3.5550127767569402       -1.8335441519349649        1.5101302368324026     
  -3.2523310743961376       -2.3285924036888175        1.5122788456471916     
  -2.8284263986661937       -2.8284278508259999        1.5132474447410118     
  -1.5412778077960678       -3.1407363202834468        2.2663803674256915     
  -1.0154002439045449       -3.1643924581539653        2.2680262869442700     
 -0.26266525414772102       -3.1974034944578014        2.2628023655532803     
  0.52899868134168548       -3.1776199499937743        2.2554948265193708     
   1.2632944265925841       -3.1075962430021375        2.2516492990066261     
   1.7685972376305101       -3.0571282798933788        2.2505637295852043     
  -2.4374631569991463       -2.4374635120736521        2.2737502868167829     
  -1.8345616007170467       -2.6249395924463519        2.2853601535669212     
  -1.0069274728856585       -2.4952663138979911        2.3114152581748764     
 -0.25303648278646423       -2.4733824188568092        2.2983228958211392     
  0.50473325472072661       -2.4614493330198104        2.2716048372574229     
   1.2453006696909845       -2.4567809646814469        2.2561424546751860     